# vtk DataFile Version 3.0
Generated by MFEM
ASCII
DATASET UNSTRUCTURED_GRID
POINTS 51 double
0 0 0
1 0 0
1 1 0
0 1 0
0 0 1
1 0 1
1 1 1
0 1 1
0.5 0 0
1 0.5 0
0.5 1 0
0 0.5 0
0.5 0 1
1 0.5 1
0.5 1 1
0 0.5 1
0 0 0.5
1 0 0.5
1 1 0.5
0 1 0.5
0.5 0.5 0
0.25 0.75 0
0.75 0.75 0
0.75 0.25 0
0.25 0.25 0
0.5 0.5 1
0.25 0.75 1
0.75 0.75 1
0.75 0.25 1
0.25 0.25 1
0.5 0 0.5
0.75 0 0.25
0.25 0 0.75
0.25 0 0.25
0.75 0 0.75
1 0.5 0.5
1 0.75 0.25
1 0.25 0.75
1 0.25 0.25
1 0.75 0.75
0.5 1 0.5
0.75 1 0.75
0.75 1 0.25
0.25 1 0.25
0.25 1 0.75
0 0.5 0.5
0 0.75 0.75
0 0.75 0.25
0 0.25 0.25
0 0.25 0.75
0.563776 0.442602 0.4375
CELLS 130 650
4 45 26 44 46
4 27 50 40 41
4 47 50 43 45
4 27 50 41 39
4 25 40 45 44
4 25 45 26 44
4 25 40 27 50
4 40 45 43 50
4 50 48 33 30
4 50 42 22 40
4 50 42 40 36
4 40 25 45 50
4 42 50 22 36
4 40 25 27 44
4 40 27 41 14
4 30 48 33 16
4 27 44 25 14
4 40 27 14 44
4 36 40 18 42
4 22 40 42 10
4 45 44 19 46
4 43 45 19 47
4 27 50 39 25
4 45 25 29 50
4 45 30 48 50
4 25 35 28 50
4 28 50 34 25
4 28 50 35 37
4 40 20 22 50
4 48 50 24 45
4 35 40 36 50
4 26 45 29 46
4 45 30 32 48
4 35 25 28 39
4 28 35 39 37
4 32 45 16 49
4 39 28 37 13
4 28 39 25 13
4 34 25 12 28
4 44 25 14 26
4 48 30 32 16
4 39 25 13 27
4 46 29 26 15
4 45 29 15 49
4 45 32 16 48
4 45 40 43 19
4 29 45 15 46
4 20 40 22 10
4 40 35 36 18
4 45 40 19 44
4 24 45 11 48
4 48 50 33 24
4 35 25 39 50
4 30 25 34 50
4 20 45 24 50
4 45 25 26 29
4 28 50 37 34
4 50 9 22 36
4 8 50 31 23
4 9 50 23 38
4 50 17 31 38
4 8 50 24 33
4 50 8 31 30
4 8 50 23 20
4 8 50 33 30
4 9 50 22 20
4 50 9 23 20
4 17 50 31 30
4 9 50 35 36
4 50 9 35 38
4 50 17 38 35
4 50 31 23 38
4 17 50 34 37
4 1 8 31 23
4 2 9 36 22
4 7 19 44 46
4 18 2 36 42
4 17 1 31 38
4 9 1 38 23
4 19 3 43 47
4 16 0 48 33
4 6 14 41 27
4 2 10 22 42
4 8 50 20 24
4 17 50 30 34
4 17 50 37 35
4 23 38 31 1
4 36 2 22 42
4 0 11 48 24
4 3 10 43 21
4 14 7 44 26
4 15 4 49 29
4 6 18 39 41
4 5 12 28 34
4 13 6 39 27
4 4 16 49 32
4 13 5 28 37
4 0 8 24 33
4 7 15 46 26
4 3 11 21 47
4 41 27 39 6
4 46 26 44 7
4 47 21 3 43
4 33 24 0 48
4 5 17 34 37
4 12 4 29 32
4 37 28 34 5
4 29 32 4 49
4 20 45 50 47
4 20 45 47 24
4 47 20 24 21
4 47 24 45 11
4 24 47 21 11
4 35 40 50 41
4 41 50 35 39
4 35 40 41 18
4 41 35 18 39
4 20 40 43 50
4 40 20 43 10
4 20 43 10 21
4 45 32 29 49
4 25 30 29 50
4 29 30 34 32
4 30 25 29 34
4 34 29 32 12
4 29 34 25 12
4 50 47 43 20
4 20 47 43 21
4 30 45 29 50
4 45 30 29 32
CELL_TYPES 130
10
10
10
10
10
10
10
10
10
10
10
10
10
10
10
10
10
10
10
10
10
10
10
10
10
10
10
10
10
10
10
10
10
10
10
10
10
10
10
10
10
10
10
10
10
10
10
10
10
10
10
10
10
10
10
10
10
10
10
10
10
10
10
10
10
10
10
10
10
10
10
10
10
10
10
10
10
10
10
10
10
10
10
10
10
10
10
10
10
10
10
10
10
10
10
10
10
10
10
10
10
10
10
10
10
10
10
10
10
10
10
10
10
10
10
10
10
10
10
10
10
10
10
10
10
10
10
10
10
10
CELL_DATA 130
SCALARS material int
LOOKUP_TABLE default
101
101
101
101
101
101
101
101
101
101
101
101
101
101
101
101
101
101
101
101
101
101
101
101
101
101
101
101
101
101
101
101
101
101
101
101
101
101
101
101
101
101
101
101
101
101
101
101
101
101
101
101
101
101
101
101
101
101
101
101
101
101
101
101
101
101
101
101
101
101
101
101
101
101
101
101
101
101
101
101
101
101
101
101
101
101
101
101
101
101
101
101
101
101
101
101
101
101
101
101
101
101
101
101
101
101
101
101
101
101
101
101
101
101
101
101
101
101
101
101
101
101
101
101
101
101
101
101
101
101
